 Gaussian 16, Revision B.01,
 Gaussian 16:  ES64L-G16RevB.01 20-Dec-2017

 --------------------------------------
 #P opt B97D3/aug-cc-pvtz freq(noraman)
 --------------------------------------

 -----
 Title
 -----
 Symbolic Z-matrix:
 Charge =  0 Multiplicity = 1

 SCF Done:  E(RB97D3) =  -56.5552673232     A.U. after    8 cycles
 SCF Done:  E(RB97D3) =  -56.5553472031     A.U. after    7 cycles
 SCF Done:  E(RB97D3) =  -56.5553684470     A.U. after    7 cycles
 Optimization completed.
    -- Stationary point found.
 Normal termination of Gaussian 16 at Thu Mar 24 10:26:38 2022.

 ----------------------------------------------------------------------
 #P Geom=AllCheck Guess=TCheck SCRF=Check GenChk RB97D3/Aug-CC-pVTZ Fre
 q
 ----------------------------------------------------------------------

 Structure from the checkpoint file:  "input.chk"
 -----
 Title
 -----
 Charge =  0 Multiplicity = 1

                         Standard orientation:
 ---------------------------------------------------------------------
 Center     Atomic      Atomic             Coordinates (Angstroms)
 Number     Number       Type             X           Y           Z
 ---------------------------------------------------------------------
      1          7           0        0.000010    0.000035   -0.116521
      2          1           0       -0.774541    0.533115    0.271906
      3          1           0        0.849060    0.403983    0.271929
      4          1           0       -0.074588   -0.937344    0.271814
 ---------------------------------------------------------------------

 SCF Done:  E(RB97D3) =  -56.5553684470     A.U. after    1 cycles

 The electronic state is 1-A.
 Alpha  occ. eigenvalues --  -13.97789  -0.78107  -0.41496  -0.41491  -0.22826
 Alpha virt. eigenvalues --   -0.02413   0.02178   0.02178   0.06361   0.08414
 Alpha virt. eigenvalues --    0.11109   0.11110   0.11663   0.11664   0.15654
 Alpha virt. eigenvalues --    0.15655   0.16534   0.25915   0.28738   0.29564

 Mulliken charges:
               1
     1  N   -0.391164
     2  H    0.130384
     3  H    0.130378
     4  H    0.130403
 Sum of Mulliken charges =  -0.00000

 Dipole moment (field-independent basis, Debye):
    X=             -0.0001    Y=             -0.0003    Z=              1.4810  Tot=              1.4810
 Quadrupole moment (field-independent basis, Debye-Ang):
   XX=             -6.4025   YY=             -6.4034   ZZ=             -9.4661
   XY=              0.0000   XZ=              0.0000   YZ=              0.0002

  Exact polarizability:  14.380  -0.000  14.380  -0.000  -0.000  16.754
 Approx polarizability:  20.204  -0.000  20.203  -0.000  -0.001  21.456

                      1                      2                      3
                      A                      A                      A
 Frequencies --   1035.8416              1642.5685              1642.8135
 Red. masses --      1.1811                 1.0658                 1.0658
 Frc consts  --      0.7467                 1.6942                 1.6947
 IR Inten    --    120.7065                13.6766                13.6627

                      4                      5                      6
                      A                      A                      A
 Frequencies --   3397.8782              3522.6917              3523.1565
 Red. masses --      1.0264                 1.0887                 1.0887
 Frc consts  --      6.9820                 7.9600                 7.9623
 IR Inten    --      8.2347                 1.4499                 1.4622

 - Thermochemistry -
 -------------------
 Temperature   298.150 Kelvin.  Pressure   1.00000 Atm.
 Atom     1 has atomic number  7 and mass  14.00307

 Molecular mass:    17.02655 amu.
 Principal axes and moments of inertia in atomic units:
                           1         2         3
     Eigenvalues --     6.11197   6.11323   9.54604
           X            1.00000  -0.00000   0.00000
           Y            0.00000   1.00000   0.00002
           Z           -0.00000  -0.00002   1.00000
 This molecule is an asymmetric top.
 Rotational symmetry number  1.
 Rotational temperatures (Kelvin)     14.17120    14.16827     9.07328
 Rotational constants (GHZ):         295.27989   295.21879   189.05656
 Zero-point vibrational energy      88314.0 (Joules/Mol)
                                   21.10756 (Kcal/Mol)
 Vibrational temperatures:   1490.34  2363.29  2363.64  4888.79  5068.37
          (Kelvin)           5069.04

 Zero-point correction=                           0.033637 (Hartree/Particle)
 Thermal correction to Energy=                    0.036507
 Thermal correction to Enthalpy=                  0.037451
 Thermal correction to Gibbs Free Energy=         0.014561
 Sum of electronic and zero-point Energies=            -56.521731
 Sum of electronic and thermal Energies=               -56.518861
 Sum of electronic and thermal Enthalpies=             -56.517917
 Sum of electronic and thermal Free Energies=          -56.540807

                     E (Thermal)             CV                S
                      KCal/Mol        Cal/Mol-Kelvin    Cal/Mol-Kelvin
 Total                   22.909              6.391             48.177
 Electronic               0.000              0.000              0.000
 Translational            0.889              2.981             34.441
 Rotational               0.889              2.981             13.642
 Vibrational             21.131              0.430              0.094

 Optimization completed.
    -- Stationary point found.
 Normal termination of Gaussian 16 at Thu Mar 24 10:27:48 2022.
